2
Atoms. Timestep: 0
1 7.92748 -5.29613 -3.12484
1 4.03799 2.91749 -2.71147
2
Atoms. Timestep: 10000
1 -6.27078 8.55631 1.18335
1 3.29681 6.33076 -2.79276
2
Atoms. Timestep: 20000
1 -6.24883 -9.46675 -8.02826
1 -0.289747 0.00582323 -8.35115
2
Atoms. Timestep: 30000
1 -4.15287 7.20591 -9.36998
1 -0.106639 -4.79285 5.28811
2
Atoms. Timestep: 40000
1 5.88168 -5.70279 7.4392
1 6.67141 9.85929 8.18298
2
Atoms. Timestep: 50000
1 5.88098 -1.72349 -6.62982
1 1.71029 9.65582 -4.77484
2
Atoms. Timestep: 60000
1 0.470415 1.79763 -3.19688
1 2.25561 6.95802 -2.21077
2
Atoms. Timestep: 70000
1 6.83048 -4.98973 6.91748
1 -1.94707 -7.79474 -3.15442
2
Atoms. Timestep: 80000
1 -9.7843 -4.67215 2.91398
1 -4.56501 5.35664 8.52704
2
Atoms. Timestep: 90000
1 4.22817 -2.56233 8.12083
1 -0.00409116 5.38016 -9.33024
2
Atoms. Timestep: 100000
1 7.2018 -0.493281 1.1634
1 3.71703 8.67638 -9.48062
2
Atoms. Timestep: 110000
1 -9.28428 -3.78463 -2.22679
1 7.48099 -7.87368 9.69997
2
Atoms. Timestep: 120000
1 -7.41974 8.04597 -4.2168
1 2.20382 8.17023 -5.09869
2
Atoms. Timestep: 130000
1 5.69283 -9.59428 6.10501
1 4.58746 1.92571 4.80718
2
Atoms. Timestep: 140000
1 0.796861 6.29275 -9.98144
1 5.75694 0.633898 0.557921
2
Atoms. Timestep: 150000
1 1.90043 -7.60231 -6.0992
1 -7.25166 -5.65412 2.74349
2
Atoms. Timestep: 160000
1 1.1475 5.27427 -0.308227
1 -9.76902 -6.914 5.14979
2
Atoms. Timestep: 170000
1 -2.00388 3.31348 2.08063
1 5.04461 -8.17569 -9.78895
2
Atoms. Timestep: 180000
1 -3.01843 -0.830113 9.52445
1 -3.63306 6.31138 -6.42915
2
Atoms. Timestep: 190000
1 8.41494 -6.36461 5.11357
1 0.803392 2.91251 -7.9877
2
Atoms. Timestep: 200000
1 2.36218 -8.1686 6.06629
1 0.982547 -5.85565 -3.70446
2
Atoms. Timestep: 210000
1 -5.47312 -6.65415 7.41964
1 -1.18466 9.25369 -4.57874
2
Atoms. Timestep: 220000
1 -1.78392 3.17666 7.84315
1 -2.29868 -5.56414 2.44911
2
Atoms. Timestep: 230000
1 -3.35075 -5.06831 4.15011
1 -6.72245 -0.304966 1.97845
2
Atoms. Timestep: 240000
1 -1.95243 4.42329 4.16873
1 1.54025 -2.42955 -5.15757
2
Atoms. Timestep: 250000
1 -3.70823 8.16388 -7.33421
1 -2.65712 5.61434 -3.95234
2
Atoms. Timestep: 260000
1 6.15772 7.58165 -3.07572
1 -4.08871 -1.25773 1.22155
2
Atoms. Timestep: 270000
1 9.7261 -7.14492 -7.3228
1 -6.58942 -0.0424489 -5.01955
2
Atoms. Timestep: 280000
1 -2.53056 -8.53687 -4.95523
1 1.74492 -2.6332 -5.07518
2
Atoms. Timestep: 290000
1 -8.97904 -1.39338 2.54697
1 -1.07219 -2.06728 5.31636
2
Atoms. Timestep: 300000
1 -2.26189 -1.36603 6.34463
1 0.0377312 -2.86607 2.28218
2
Atoms. Timestep: 310000
1 -2.14924 0.939368 4.0277
1 -1.37664 -2.58976 -1.19502
2
Atoms. Timestep: 320000
1 -4.61181 -6.27071 2.6867
1 -3.39834 -4.06443 -2.94547
2
Atoms. Timestep: 330000
1 -0.104503 8.99714 5.94298
1 -8.1333 -6.03125 -8.75518
2
Atoms. Timestep: 340000
1 -0.190269 8.2233 -9.85231
1 9.1746 -9.46082 -4.61255
2
Atoms. Timestep: 350000
1 -7.23572 5.65207 -9.76454
1 0.718298 6.95185 7.62494
2
Atoms. Timestep: 360000
1 -6.7924 8.93105 2.10629
1 -2.3683 -5.22892 -2.77606
2
Atoms. Timestep: 370000
1 -3.09249 -7.59706 8.42119
1 -6.3225 -0.153219 -8.57556
2
Atoms. Timestep: 380000
1 -7.13516 -5.10196 8.72743
1 1.37209 -2.36461 -2.3513
2
Atoms. Timestep: 390000
1 2.42015 6.03907 3.43691
1 -9.93632 -7.40638 3.08848
2
Atoms. Timestep: 400000
1 -9.73832 9.01195 0.318035
1 -8.23245 -4.64614 4.55534
2
Atoms. Timestep: 410000
1 -5.48892 8.40631 0.343879
1 7.7198 4.60844 4.30791
2
Atoms. Timestep: 420000
1 -4.91661 8.51241 7.78081
1 -9.68125 2.17897 2.39922
2
Atoms. Timestep: 430000
1 -4.89324 -4.6314 -5.60157
1 -5.53408 9.80496 3.09807
2
Atoms. Timestep: 440000
1 -9.49044 7.52584 -6.22172
1 -4.00376 9.04037 -6.72592
2
Atoms. Timestep: 450000
1 -2.47247 7.00775 -8.91265
1 -6.62957 -4.2199 -5.64687
2
Atoms. Timestep: 460000
1 -3.66569 6.44784 -9.5187
1 -6.50052 -2.16457 -4.50211
2
Atoms. Timestep: 470000
1 -9.66182 2.39084 6.69134
1 -4.42933 7.85757 -4.31396
2
Atoms. Timestep: 480000
1 -0.091083 -9.24282 2.52492
1 3.91826 7.59206 -8.67554
2
Atoms. Timestep: 490000
1 4.64464 6.80623 7.12494
1 3.14706 0.831158 -9.46188
2
Atoms. Timestep: 500000
1 4.22621 8.63556 4.59071
1 5.14725 -0.68961 2.95812
2
Atoms. Timestep: 510000
1 3.01934 -8.25781 -1.26863
1 6.16069 1.11791 2.02161
2
Atoms. Timestep: 520000
1 1.73986 -5.93639 5.60107
1 3.9669 -4.69922 -0.383334
2
Atoms. Timestep: 530000
1 1.45574 1.27425 1.85437
1 5.26378 -8.11203 -3.4213
2
Atoms. Timestep: 540000
1 -0.972782 -3.08299 -9.80609
1 -9.05278 -1.40283 -5.38465
2
Atoms. Timestep: 550000
1 3.56289 -3.33569 -7.01647
1 -3.77422 -9.85253 -6.75189
2
Atoms. Timestep: 560000
1 -2.44179 3.65954 1.97983
1 -7.43543 -7.04766 9.38172
2
Atoms. Timestep: 570000
1 -1.50429 0.574125 2.70914
1 -1.45792 8.62484 2.16871
2
Atoms. Timestep: 580000
1 3.009 3.65945 2.83227
1 -3.01005 -8.22647 -7.50205
2
Atoms. Timestep: 590000
1 9.53337 2.69535 0.663401
1 2.20952 -4.00337 -5.57912
2
Atoms. Timestep: 600000
1 5.36149 8.76296 -3.39215
1 -2.92936 -1.49912 3.14917
2
Atoms. Timestep: 610000
1 3.43438 4.20208 -1.14799
1 0.343868 3.17537 3.56629
2
Atoms. Timestep: 620000
1 -5.02672 -6.95327 -5.97967
1 -4.54576 -8.03665 7.06093
2
Atoms. Timestep: 630000
1 -9.71576 -4.62391 7.95584
1 5.99199 1.43531 0.114645
2
Atoms. Timestep: 640000
1 -2.72527 -9.85379 7.9524
1 -1.50102 6.02309 5.22566
2
Atoms. Timestep: 650000
1 7.55464 -8.68009 4.70027
1 9.64514 0.811694 -7.96948
2
Atoms. Timestep: 660000
1 -8.66277 -4.70076 0.227361
1 -5.03403 -9.44732 -8.52235
2
Atoms. Timestep: 670000
1 -1.33893 4.59361 -1.45223
1 -8.10857 -3.87165 7.20531
2
Atoms. Timestep: 680000
1 -1.88554 -4.6693 0.400904
1 8.31723 -7.49385 -8.18943
2
Atoms. Timestep: 690000
1 1.78336 7.21259 0.520814
1 8.30865 8.37923 3.84888
2
Atoms. Timestep: 700000
1 -0.17444 -1.35532 2.39888
1 -3.3801 -0.784841 -9.62531
2
Atoms. Timestep: 710000
1 6.41928 7.89795 4.94134
1 0.648784 -8.70052 6.03301
2
Atoms. Timestep: 720000
1 -3.82952 8.37829 -5.07493
1 2.22613 -9.00974 6.89757
2
Atoms. Timestep: 730000
1 -6.4144 4.49981 -3.6958
1 6.68941 9.74763 9.76551
2
Atoms. Timestep: 740000
1 -3.29321 7.30227 -3.72291
1 2.20204 -6.01274 3.74497
2
Atoms. Timestep: 750000
1 2.74171 0.785711 -7.2877
1 -1.68552 -6.69986 0.4841
2
Atoms. Timestep: 760000
1 5.57571 -1.86073 -4.84487
1 -0.0884772 1.87625 8.8185
2
Atoms. Timestep: 770000
1 2.37961 -6.30009 -4.5633
1 -3.12907 9.88396 -0.746216
2
Atoms. Timestep: 780000
1 -9.05284 -5.0155 4.25109
1 -6.93836 -0.0354343 -0.675432
2
Atoms. Timestep: 790000
1 -9.60519 -5.68109 -6.38403
1 -1.55232 -5.39642 5.47251
2
Atoms. Timestep: 800000
1 5.26097 8.84112 6.99293
1 -4.78045 -6.73626 -6.74606
2
Atoms. Timestep: 810000
1 -8.99986 2.38305 6.7885
1 6.74093 -0.711981 9.15689
2
Atoms. Timestep: 820000
1 2.05024 0.333903 -8.66545
1 3.25048 7.94465 -2.68915
2
Atoms. Timestep: 830000
1 0.696073 -0.523206 -0.185676
1 2.55953 1.12673 4.10055
2
Atoms. Timestep: 840000
1 -7.08106 8.17048 -1.79866
1 -4.30937 -5.39809 9.09756
2
Atoms. Timestep: 850000
1 9.03692 4.00596 1.7263
1 -4.64446 -3.16625 6.4287
2
Atoms. Timestep: 860000
1 -9.66667 -6.91442 -4.04168
1 0.123563 -6.02519 -8.60217
2
Atoms. Timestep: 870000
1 -8.37898 2.48607 -9.71027
1 -1.09895 -5.04259 2.70845
2
Atoms. Timestep: 880000
1 -2.40295 -5.77339 -6.77743
1 7.35249 -5.93371 4.65011
2
Atoms. Timestep: 890000
1 -9.48006 0.842641 -4.91476
1 8.82104 -9.69492 8.00457
2
Atoms. Timestep: 900000
1 6.04147 -3.23612 -8.02155
1 -1.94785 -2.24076 8.84527
2
Atoms. Timestep: 910000
1 3.35471 0.912947 9.31853
1 -5.93074 8.12052 5.2144
2
Atoms. Timestep: 920000
1 -9.84874 -5.51762 3.19529
1 -4.8121 4.99795 -4.53645
2
Atoms. Timestep: 930000
1 1.20037 -6.00359 -0.591419
1 3.2335 -8.78705 -9.31705
2
Atoms. Timestep: 940000
1 3.72214 -4.63339 9.43129
1 -4.59134 -5.56113 -9.64083
2
Atoms. Timestep: 950000
1 0.360241 -1.28671 3.86113
1 -2.87813 -0.82105 -8.04629
2
Atoms. Timestep: 960000
1 -6.04705 2.20057 -4.3706
1 -8.14368 -4.6494 6.67617
2
Atoms. Timestep: 970000
1 1.9069 6.03234 -3.31665
1 -7.34844 4.59913 0.266675
2
Atoms. Timestep: 980000
1 2.10785 4.63047 0.314251
1 -9.60007 -2.02768 -3.92645
2
Atoms. Timestep: 990000
1 0.815729 -6.19955 9.49102
1 8.16318 -4.89291 -3.54721
2
Atoms. Timestep: 1000000
1 0.517086 -0.98568 0.720361
1 0.153389 -1.10548 3.24217
2
Atoms. Timestep: 1010000
1 5.48462 8.00968 -7.27497
1 -4.92824 2.66778 7.45757
2
Atoms. Timestep: 1020000
1 -7.6341 -8.75902 7.84624
1 -1.50707 -6.28535 -6.26772
2
Atoms. Timestep: 1030000
1 7.83066 -6.66153 -9.77197
1 -7.81296 9.71667 -4.97371
2
Atoms. Timestep: 1040000
1 -3.40528 9.22036 -8.19122
1 3.86816 -7.15225 -5.64111
2
Atoms. Timestep: 1050000
1 -1.02414 -2.95471 5.0167
1 7.2901 -9.14945 -3.00697
2
Atoms. Timestep: 1060000
1 -9.10192 0.849664 3.63502
1 6.91447 7.78109 8.36099
2
Atoms. Timestep: 1070000
1 9.00994 1.33517 9.61502
1 1.66932 -9.85345 -4.07194
2
Atoms. Timestep: 1080000
1 -2.81401 3.02245 -0.908817
1 9.37385 3.6149 -3.4284
2
Atoms. Timestep: 1090000
1 -5.28661 6.10416 6.80176
1 0.611713 0.173972 -6.37613
2
Atoms. Timestep: 1100000
1 0.321931 0.902007 -0.928356
1 -0.0641068 9.79255 0.040766
2
Atoms. Timestep: 1110000
1 5.11637 5.97467 -5.2829
1 3.59768 9.41215 8.23587
2
Atoms. Timestep: 1120000
1 7.41915 -2.84312 4.14572
1 8.89148 6.26258 -9.83397
2
Atoms. Timestep: 1130000
1 0.816177 0.177902 -8.7995
1 -5.50749 7.05273 3.32908
2
Atoms. Timestep: 1140000
1 6.12054 -5.26993 6.04908
1 -4.62382 -0.988779 8.21372
2
Atoms. Timestep: 1150000
1 6.78199 -7.61183 8.19666
1 7.75613 1.98502 -0.428919
2
Atoms. Timestep: 1160000
1 0.993426 -7.58139 3.07892
1 9.53727 -4.13739 -1.73276
2
Atoms. Timestep: 1170000
1 7.76719 -3.51381 4.1193
1 2.13179 6.57519 9.60162
2
Atoms. Timestep: 1180000
1 2.17447 4.09264 5.53746
1 2.76824 7.57767 6.21303
2
Atoms. Timestep: 1190000
1 2.24067 -7.54218 5.82392
1 1.11825 -8.98213 -5.05755
2
Atoms. Timestep: 1200000
1 3.48991 7.56798 -5.05188
1 -4.61724 7.71171 9.45744
2
Atoms. Timestep: 1210000
1 4.79612 -8.42005 5.70891
1 -7.28872 -4.34178 8.96106
2
Atoms. Timestep: 1220000
1 9.53782 6.95697 -3.0531
1 -9.68754 0.87274 -5.99436
2
Atoms. Timestep: 1230000
1 8.13603 7.4317 -8.01742
1 -4.37683 2.24717 -9.14221
2
Atoms. Timestep: 1240000
1 -6.27168 9.53193 7.3705
1 2.63309 2.40919 -2.29947
2
Atoms. Timestep: 1250000
1 -4.82431 -9.19234 5.38481
1 -0.541712 -3.47896 8.00184
2
Atoms. Timestep: 1260000
1 -8.89018 -2.1407 4.23365
1 -1.46266 0.225445 -2.42997
2
Atoms. Timestep: 1270000
1 4.21677 -2.34121 0.916583
1 -7.6021 -0.95116 6.89391
2
Atoms. Timestep: 1280000
1 -0.557458 5.17473 5.07384
1 0.758404 8.24727 5.17749
2
Atoms. Timestep: 1290000
1 9.16882 -4.24345 5.57077
1 3.97499 0.961423 4.42243
2
Atoms. Timestep: 1300000
1 5.351 3.79211 8.48814
1 3.23598 0.23247 1.95828
2
Atoms. Timestep: 1310000
1 4.03209 -1.55543 5.60587
1 -8.00732 -1.99031 -0.1036
2
Atoms. Timestep: 1320000
1 0.086766 6.85171 3.00584
1 -7.99612 -9.60171 -0.970454
2
Atoms. Timestep: 1330000
1 9.66103 -8.18335 -9.69683
1 -3.5851 7.89751 -5.25938
2
Atoms. Timestep: 1340000
1 -8.367 -3.8494 -6.85306
1 -3.85087 -5.12873 9.40244
2
Atoms. Timestep: 1350000
1 -9.96752 1.24563 6.53385
1 7.56842 -7.88031 -6.63056
2
Atoms. Timestep: 1360000
1 8.95221 2.43586 7.08074
1 4.94205 6.43721 4.31679
2
Atoms. Timestep: 1370000
1 4.28899 5.81982 -6.55008
1 7.90552 4.4206 -0.613142
2
Atoms. Timestep: 1380000
1 -9.02649 -7.23127 -2.92762
1 9.2077 7.68401 -8.20786
2
Atoms. Timestep: 1390000
1 -1.82646 -9.38279 -4.50483
1 -4.1894 4.97709 5.77743
2
Atoms. Timestep: 1400000
1 7.37533 -8.59904 -0.0595068
1 5.62091 0.0304994 -7.7216
2
Atoms. Timestep: 1410000
1 -5.07478 -5.75219 -0.238708
1 0.0973834 -0.798492 -8.83053
2
Atoms. Timestep: 1420000
1 2.57464 -9.29396 0.439706
1 5.55494 1.12877 -7.68345
2
Atoms. Timestep: 1430000
1 2.92765 -8.974 -0.0365503
1 6.0754 1.84324 -4.94153
2
Atoms. Timestep: 1440000
1 -9.63014 -3.4375 -8.52731
1 4.77746 -1.65976 -4.50638
2
Atoms. Timestep: 1450000
1 4.91699 -0.795368 6.91539
1 9.65182 4.22327 -9.77881
2
Atoms. Timestep: 1460000
1 -9.20144 8.81632 -9.75546
1 2.54918 -9.25653 5.83187
2
Atoms. Timestep: 1470000
1 -6.19103 -8.88204 -0.475677
1 2.1555 2.70852 6.6027
2
Atoms. Timestep: 1480000
1 1.68945 9.47662 -6.00533
1 -9.75563 -5.33266 -7.2046
2
Atoms. Timestep: 1490000
1 5.74482 -8.24384 -6.86055
1 8.51996 -8.82902 7.01138
2
Atoms. Timestep: 1500000
1 -4.64975 9.25409 -9.60428
1 6.66609 -9.96268 9.45359
2
Atoms. Timestep: 1510000
1 -2.99647 -9.49527 -7.11733
1 5.33619 6.3351 4.82861
2
Atoms. Timestep: 1520000
1 8.88811 -4.12543 -7.35624
1 2.16761 5.38951 8.98897
2
Atoms. Timestep: 1530000
1 -1.70434 -5.73701 7.70524
1 4.49407 8.18473 -7.91247
2
Atoms. Timestep: 1540000
1 -6.78352 1.60539 7.99365
1 -2.96577 -8.58329 4.80725
2
Atoms. Timestep: 1550000
1 -1.81339 -3.61466 6.45554
1 -5.75556 -6.41409 5.54348
2
Atoms. Timestep: 1560000
1 -1.06921 3.25566 -3.01547
1 -5.68075 -8.53437 -0.283713
2
Atoms. Timestep: 1570000
1 4.07976 -1.1471 -9.37976
1 -7.17812 4.30203 2.8775
2
Atoms. Timestep: 1580000
1 7.52072 1.87689 -9.47367
1 -7.70269 -9.61193 5.93989
2
Atoms. Timestep: 1590000
1 -3.49995 -1.16577 -8.42137
1 -9.83401 -8.32195 -5.53125
2
Atoms. Timestep: 1600000
1 0.999455 3.0602 -8.79926
1 7.8765 -7.43288 9.26152
2
Atoms. Timestep: 1610000
1 -3.26516 5.3517 8.76747
1 8.6893 -4.52881 -2.68637
2
Atoms. Timestep: 1620000
1 3.68079 0.447193 -8.55634
1 3.02393 -5.16886 -9.28012
2
Atoms. Timestep: 1630000
1 0.552894 -5.27382 7.37497
1 3.20727 -6.60928 2.81586
2
Atoms. Timestep: 1640000
1 2.6043 8.25644 2.24542
1 -0.535414 -4.79204 4.235
2
Atoms. Timestep: 1650000
1 7.23753 7.73384 -2.44911
1 -9.90385 4.00917 0.535931
2
Atoms. Timestep: 1660000
1 5.79373 2.78368 7.72048
1 5.10005 4.97774 9.81772
2
Atoms. Timestep: 1670000
1 7.86387 2.82412 9.30365
1 8.02951 7.65094 -3.87663
2
Atoms. Timestep: 1680000
1 6.97802 -0.56892 5.11137
1 9.99703 -6.91093 -6.38502
2
Atoms. Timestep: 1690000
1 4.34331 -5.78615 -5.23385
1 9.53762 -6.66624 -6.5171
2
Atoms. Timestep: 1700000
1 1.21092 9.53944 7.07638
1 -8.37507 4.12691 -0.375348
2
Atoms. Timestep: 1710000
1 -2.12083 -6.91415 -8.78459
1 -7.86078 1.83829 2.42292
2
Atoms. Timestep: 1720000
1 1.39636 -7.69523 8.57512
1 -3.98028 0.103484 5.15451
2
Atoms. Timestep: 1730000
1 9.85462 -0.711405 7.06263
1 -1.81833 7.17133 -3.90954
2
Atoms. Timestep: 1740000
1 -3.81456 -9.92655 -3.96277
1 -7.19707 0.153789 -2.16568
2
Atoms. Timestep: 1750000
1 -7.11794 -0.369758 1.1526
1 -7.38918 4.21155 0.615496
2
Atoms. Timestep: 1760000
1 -8.8308 -6.54393 1.20726
1 7.57675 7.40097 5.09742
2
Atoms. Timestep: 1770000
1 7.71106 -1.90028 2.83842
1 8.31971 -6.35725 0.698072
2
Atoms. Timestep: 1780000
1 -1.89307 0.100088 -8.75172
1 -9.98291 -3.09378 3.76935
2
Atoms. Timestep: 1790000
1 -1.5608 -6.78765 5.90097
1 8.3393 0.739696 -3.67774
2
Atoms. Timestep: 1800000
1 6.22063 -8.08151 8.62367
1 6.57232 -7.01733 0.250307
2
Atoms. Timestep: 1810000
1 -2.3993 -6.15119 -9.50111
1 7.50666 9.45146 9.43233
2
Atoms. Timestep: 1820000
1 3.70918 -4.19169 6.28923
1 -0.956252 -7.76478 -9.91744
2
Atoms. Timestep: 1830000
1 4.21516 4.62502 -7.14014
1 -1.3231 -4.56302 -5.2518
2
Atoms. Timestep: 1840000
1 -8.24395 8.31761 -2.53569
1 -8.80953 5.14681 -8.4362
2
Atoms. Timestep: 1850000
1 -5.37803 0.964808 -8.56237
1 -7.87329 2.17522 -6.11916
2
Atoms. Timestep: 1860000
1 -7.0431 -9.25474 3.28057
1 9.39712 -0.177576 5.46983
2
Atoms. Timestep: 1870000
1 8.33777 -5.14926 -5.21216
1 -0.404205 7.32873 5.09005
2
Atoms. Timestep: 1880000
1 8.74738 7.31953 -4.54504
1 7.68616 9.47469 5.59354
2
Atoms. Timestep: 1890000
1 8.24323 8.55761 -2.68835
1 -3.81412 -0.567805 1.13241
2
Atoms. Timestep: 1900000
1 -5.93592 -5.18372 -4.70001
1 0.609056 -2.04826 1.32427
2
Atoms. Timestep: 1910000
1 -1.89183 -9.60565 -1.12787
1 0.0636921 -8.00363 -8.11039
2
Atoms. Timestep: 1920000
1 -4.92804 -4.19923 -1.82561
1 4.91509 -6.69664 2.83704
2
Atoms. Timestep: 1930000
1 -1.86794 -8.45244 5.81769
1 -1.48157 9.75628 6.41432
2
Atoms. Timestep: 1940000
1 -3.93355 -6.11666 -6.11347
1 -9.72295 5.68068 8.44589
2
Atoms. Timestep: 1950000
1 9.31276 6.03189 0.516573
1 9.75733 -2.25793 3.44814
2
Atoms. Timestep: 1960000
1 6.95117 1.51135 5.02167
1 8.17191 2.52415 -0.173222
2
Atoms. Timestep: 1970000
1 6.84134 6.01013 3.81582
1 5.13515 7.49962 -7.23316
2
Atoms. Timestep: 1980000
1 2.70329 -7.45859 3.67411
1 -7.98269 9.43326 -6.89286
2
Atoms. Timestep: 1990000
1 -2.29607 -4.9816 2.00932
1 -4.27968 0.384023 -8.9985
2
Atoms. Timestep: 2000000
1 4.96906 1.35445 4.6609
1 0.882014 0.933379 5.17775
2
Atoms. Timestep: 2010000
1 1.40923 -1.01886 -0.891432
1 5.35684 -6.877 -4.77509
2
Atoms. Timestep: 2020000
1 -1.24941 9.85818 -3.59384
1 8.27456 -8.88987 -2.92288
2
Atoms. Timestep: 2030000
1 0.651824 9.31737 4.89375
1 -5.32841 4.14378 7.03894
2
Atoms. Timestep: 2040000
1 -4.12094 9.64079 4.2747
1 -3.71724 2.89591 1.72571
2
Atoms. Timestep: 2050000
1 -4.66278 0.754908 -4.04592
1 5.77371 5.12014 -7.54995
2
Atoms. Timestep: 2060000
1 -8.39229 -3.52713 -9.25026
1 5.30207 1.45908 3.6502
2
Atoms. Timestep: 2070000
1 6.72572 -6.72886 -5.47102
1 -1.80677 8.89637 8.9118
2
Atoms. Timestep: 2080000
1 7.88486 -3.40195 -1.61843
1 -8.74887 9.04577 8.66866
2
Atoms. Timestep: 2090000
1 0.441045 2.09313 1.16385
1 -0.227939 5.81053 -5.01473
2
Atoms. Timestep: 2100000
1 -5.25259 7.41321 0.986925
1 -0.123777 1.21434 -0.902363
2
Atoms. Timestep: 2110000
1 3.97825 5.36947 -1.88145
1 1.10492 -7.3864 9.61264
2
Atoms. Timestep: 2120000
1 7.72544 9.20064 -4.98911
1 8.5445 6.35748 1.10469
2
Atoms. Timestep: 2130000
1 -7.32374 9.61768 -5.88298
1 -9.80205 6.82753 -9.8478
2
Atoms. Timestep: 2140000
1 0.503994 -5.31472 9.50717
1 3.76673 2.13072 -4.25075
2
Atoms. Timestep: 2150000
1 2.48399 9.03055 -7.81357
1 -4.45459 -4.57806 -2.55619
2
Atoms. Timestep: 2160000
1 7.2257 8.76401 -8.11162
1 -1.72561 -6.79255 -2.15355
2
Atoms. Timestep: 2170000
1 5.98109 3.03234 9.87347
1 -0.180245 -8.45663 -8.22063
2
Atoms. Timestep: 2180000
1 2.9709 -2.25673 0.0715468
1 3.1995 -6.75005 7.99185
2
Atoms. Timestep: 2190000
1 0.487876 -0.848902 0.918799
1 5.47668 -2.10406 -5.04608
2
Atoms. Timestep: 2200000
1 3.7616 -4.69825 -8.48496
1 5.29587 -8.51253 -9.06564
2
Atoms. Timestep: 2210000
1 4.20726 -7.2975 -0.777623
1 -5.27648 3.75307 -1.46376
2
Atoms. Timestep: 2220000
1 -1.74572 3.36677 2.51166
1 -2.05902 5.84512 -8.16417
2
Atoms. Timestep: 2230000
1 -9.10344 -3.70518 -4.31971
1 -3.03616 7.11426 0.480757
2
Atoms. Timestep: 2240000
1 -3.91638 -3.37438 -7.60613
1 -4.35041 -4.23599 0.493871
2
Atoms. Timestep: 2250000
1 9.16195 -6.14961 -5.38259
1 1.20965 -4.88524 7.67843
2
Atoms. Timestep: 2260000
1 -4.88406 -2.30966 -1.85284
1 -0.360275 1.01447 0.800058
2
Atoms. Timestep: 2270000
1 3.29403 -3.62963 -2.16038
1 9.59571 0.348143 -6.08618
2
Atoms. Timestep: 2280000
1 0.752388 8.33426 -3.2435
1 -1.64133 -2.7123 3.61309
2
Atoms. Timestep: 2290000
1 8.27725 -5.4458 6.91526
1 9.49719 7.90584 -5.66101
2
Atoms. Timestep: 2300000
1 7.57867 -4.74358 8.73318
1 9.47017 -4.34865 9.56832
2
Atoms. Timestep: 2310000
1 8.30352 -3.43519 7.70195
1 -7.61345 -3.22102 0.462784
2
Atoms. Timestep: 2320000
1 -7.16728 7.615 2.70512
1 -1.56669 4.67436 -6.2209
2
Atoms. Timestep: 2330000
1 1.5895 7.64187 0.292753
1 3.52522 -7.89102 -4.59537
2
Atoms. Timestep: 2340000
1 -5.21774 -2.4017 -2.23219
1 -7.60742 9.99201 -5.31643
2
Atoms. Timestep: 2350000
1 -6.48878 2.10451 -8.54563
1 8.14281 1.95037 -2.47011
2
Atoms. Timestep: 2360000
1 -0.397521 2.79407 0.968389
1 -7.63122 4.6937 -1.37147
2
Atoms. Timestep: 2370000
1 5.78696 8.83973 -9.21496
1 -5.59778 8.43266 2.62511
2
Atoms. Timestep: 2380000
1 -5.0301 8.82389 6.67905
1 -8.24496 6.79629 0.553166
2
Atoms. Timestep: 2390000
1 8.81791 -9.12853 4.5321
1 -5.69901 2.22034 -3.4916
2
Atoms. Timestep: 2400000
1 -8.98475 -4.09239 2.60341
1 4.34896 -3.61977 -4.36295
2
Atoms. Timestep: 2410000
1 -7.11516 -4.33141 -1.03469
1 -2.13578 8.64714 4.07256
2
Atoms. Timestep: 2420000
1 7.7079 -4.84193 2.96354
1 -5.52703 -9.35327 0.336507
2
Atoms. Timestep: 2430000
1 6.81686 -3.33589 3.32575
1 -6.96713 6.90437 -3.12588
2
Atoms. Timestep: 2440000
1 1.57334 -8.03722 -0.719119
1 -6.94214 1.5246 9.80529
2
Atoms. Timestep: 2450000
1 8.39924 -8.21216 -0.762358
1 -8.45247 6.67842 8.67114
2
Atoms. Timestep: 2460000
1 9.14778 7.99773 -0.173402
1 2.13149 6.62655 9.59359
2
Atoms. Timestep: 2470000
1 -6.94251 6.7011 -1.85603
1 -3.46137 -5.40278 8.65628
2
Atoms. Timestep: 2480000
1 -1.51138 6.50419 6.6425
1 -6.76075 -5.86892 5.47653
2
Atoms. Timestep: 2490000
1 -4.47584 -6.62905 1.702
1 -7.64607 -0.0979115 6.19241
2
Atoms. Timestep: 2500000
1 -2.29613 9.18808 5.47656
1 9.4332 0.432043 -9.49885
2
Atoms. Timestep: 2510000
1 2.31979 5.17889 -5.6992
1 -3.55496 8.30283 8.98725
2
Atoms. Timestep: 2520000
1 8.61018 5.38577 -8.82531
1 -1.60404 -7.61602 1.86389
2
Atoms. Timestep: 2530000
1 1.68481 -2.5377 5.24778
1 3.82072 -1.42293 1.8394
2
Atoms. Timestep: 2540000
1 3.20607 -2.28954 -0.399356
1 5.83528 4.23064 -6.97743
2
Atoms. Timestep: 2550000
1 5.88295 -4.95888 -3.55581
1 3.0181 5.33641 2.10265
2
Atoms. Timestep: 2560000
1 1.35534 -2.4903 9.39293
1 3.78082 1.06654 -3.8777
2
Atoms. Timestep: 2570000
1 -9.76261 -6.53676 7.96509
1 7.46531 7.54336 -9.61405
2
Atoms. Timestep: 2580000
1 -9.6384 -4.00956 -6.45362
1 -1.09818 -0.768851 3.90273
2
Atoms. Timestep: 2590000
1 5.84196 -4.47167 -4.63066
1 -8.1592 -2.13147 -8.30212
2
Atoms. Timestep: 2600000
1 -7.83014 1.64743 -2.52495
1 3.02011 2.6668 7.30715
2
Atoms. Timestep: 2610000
1 -9.5929 -8.95264 -6.90528
1 6.9785 -2.56766 -0.908226
2
Atoms. Timestep: 2620000
1 -0.0311744 -6.64827 4.20241
1 2.50929 6.51934 0.384505
2
Atoms. Timestep: 2630000
1 -0.768889 -7.59851 9.9052
1 2.64814 7.4949 -5.86383
2
Atoms. Timestep: 2640000
1 3.57509 -2.28178 6.80973
1 4.62857 -0.325352 -0.817416
2
Atoms. Timestep: 2650000
1 -6.18159 -3.58318 6.45792
1 3.73557 6.19154 0.199291
2
Atoms. Timestep: 2660000
1 -7.31234 7.4182 3.57617
1 -9.56645 -3.24835 -4.34408
2
Atoms. Timestep: 2670000
1 -3.95692 1.75705 -8.52367
1 7.34301 -7.36948 -0.383786
2
Atoms. Timestep: 2680000
1 -3.15794 -2.65721 2.38846
1 0.338674 5.11463 6.89608
2
Atoms. Timestep: 2690000
1 8.76256 -1.41597 -1.56445
1 -0.382645 6.57116 -8.80313
2
Atoms. Timestep: 2700000
1 -9.35376 -5.32479 2.77662
1 -4.85277 8.82643 -7.98886
2
Atoms. Timestep: 2710000
1 -7.88753 -6.75406 3.86675
1 -4.08333 -1.22151 8.34182
2
Atoms. Timestep: 2720000
1 0.547235 -1.11807 6.68101
1 -9.24084 -9.68577 -8.77318
2
Atoms. Timestep: 2730000
1 8.09149 0.42836 -8.3354
1 -2.45161 7.11109 2.98813
2
Atoms. Timestep: 2740000
1 2.09877 6.02087 3.55518
1 2.18177 -7.64582 -9.32584
2
Atoms. Timestep: 2750000
1 0.486418 -5.20042 6.14377
1 -2.06321 -8.94853 6.7332
2
Atoms. Timestep: 2760000
1 -0.056212 -2.5167 -5.77515
1 -2.54491 -9.93319 -3.58645
2
Atoms. Timestep: 2770000
1 2.33111 -6.30447 0.561228
1 1.30925 -3.58052 0.380634
2
Atoms. Timestep: 2780000
1 6.76108 -1.9637 6.1401
1 4.43003 1.22892 0.600829
2
Atoms. Timestep: 2790000
1 -8.883 -1.82635 9.44824
1 -1.80426 3.6959 -9.9252
2
Atoms. Timestep: 2800000
1 3.82306 -1.75798 -9.48013
1 -1.18573 0.188309 0.769272
2
Atoms. Timestep: 2810000
1 3.73584 -9.80799 9.71466
1 7.41599 -6.65676 -9.01396
2
Atoms. Timestep: 2820000
1 6.22188 1.43114 -8.06213
1 -8.49984 -7.906 -6.37632
2
Atoms. Timestep: 2830000
1 -9.95313 -3.4792 -6.45718
1 -9.70533 -3.96928 8.84524
2
Atoms. Timestep: 2840000
1 -5.02102 8.85398 3.10523
1 -2.33529 -4.58218 -3.31523
2
Atoms. Timestep: 2850000
1 5.04581 -1.03356 -3.38609
1 0.114681 -2.11154 -4.75471
2
Atoms. Timestep: 2860000
1 0.889653 0.635674 -4.81025
1 -3.70959 5.10433 7.53827
2
Atoms. Timestep: 2870000
1 7.76563 6.37864 -3.89548
1 -6.11537 -6.27251 3.05845
2
Atoms. Timestep: 2880000
1 7.71378 0.0185459 -4.18274
1 -7.47361 -7.56762 4.78427
2
Atoms. Timestep: 2890000
1 -7.19773 -4.5889 -6.70194
1 -9.44082 -3.94912 -1.22826
2
Atoms. Timestep: 2900000
1 -4.24733 -2.37813 8.02774
1 9.38336 -5.50485 -5.70271
2
Atoms. Timestep: 2910000
1 -1.01907 -2.57981 -9.53064
1 9.29864 -5.30869 -9.73583
2
Atoms. Timestep: 2920000
1 0.967707 -2.52911 -3.54607
1 5.53161 -4.26573 4.92457
2
Atoms. Timestep: 2930000
1 -8.86985 0.864367 0.145601
1 6.85561 1.5315 3.96117
2
Atoms. Timestep: 2940000
1 -5.09252 -9.79734 8.5116
1 5.77178 -0.700862 4.21946
2
Atoms. Timestep: 2950000
1 9.85277 -7.2702 4.08318
1 -9.5704 9.76033 5.5825
2
Atoms. Timestep: 2960000
1 -0.670071 -7.90647 4.14692
1 -7.87132 6.55241 2.56452
2
Atoms. Timestep: 2970000
1 2.21036 -9.58768 3.36292
1 -9.74411 0.150556 2.81285
2
Atoms. Timestep: 2980000
1 -1.17238 -7.85357 -4.91469
1 1.29074 0.261737 6.95536
2
Atoms. Timestep: 2990000
1 1.70451 -6.97618 -2.52972
1 8.39525 -3.74949 3.95349
2
Atoms. Timestep: 3000000
1 -7.26985 9.18704 4.07633
1 8.59015 3.83209 -3.90371
2
Atoms. Timestep: 3010000
1 -5.11304 -8.61224 -2.6441
1 -8.66617 -4.95716 1.63712
2
Atoms. Timestep: 3020000
1 -5.54164 -9.33046 2.65973
1 9.78734 -3.46854 5.52579
2
Atoms. Timestep: 3030000
1 -4.6283 8.05927 9.97956
1 6.76156 -1.43488 9.36165
2
Atoms. Timestep: 3040000
1 9.79411 6.3774 4.27882
1 7.90084 6.91605 -7.74014
2
Atoms. Timestep: 3050000
1 8.8739 -9.41762 4.14887
1 5.98428 -5.66064 -2.30184
2
Atoms. Timestep: 3060000
1 2.34672 3.3518 4.18248
1 1.59507 -5.17894 -0.840574
2
Atoms. Timestep: 3070000
1 -3.48798 2.50564 -1.10257
1 -3.72923 -1.18581 -1.18593
2
Atoms. Timestep: 3080000
1 -3.28542 -5.028 -4.60883
1 -5.85958 -7.57347 -2.44122
2
Atoms. Timestep: 3090000
1 4.31687 -9.97575 4.93302
1 -6.24426 0.663239 -4.58146
2
Atoms. Timestep: 3100000
1 3.11008 7.50815 1.82574
1 -5.27928 -5.87888 8.79393
2
Atoms. Timestep: 3110000
1 6.45528 -6.80617 7.20528
1 1.64691 1.68413 -8.43414
2
Atoms. Timestep: 3120000
1 6.66836 2.92796 1.04806
1 2.65057 0.593744 2.66587
2
Atoms. Timestep: 3130000
1 -0.864767 4.30836 -0.65308
1 6.5977 -8.02496 6.10294
2
Atoms. Timestep: 3140000
1 1.41846 2.60402 5.32117
1 7.49411 -8.73516 5.42528
2
Atoms. Timestep: 3150000
1 7.19099 -5.20951 2.06558
1 -5.28447 -1.98772 -8.53262
2
Atoms. Timestep: 3160000
1 8.58342 2.32572 0.624612
1 -2.78303 -0.431521 -7.86929
2
Atoms. Timestep: 3170000
1 2.67914 6.80723 7.07389
1 -2.57307 2.62532 -8.33942
2
Atoms. Timestep: 3180000
1 3.1827 7.22636 8.55311
1 7.2658 3.11441 1.82526
2
Atoms. Timestep: 3190000
1 -7.77379 3.63498 9.6002
1 1.24907 9.45734 2.97567
2
Atoms. Timestep: 3200000
1 -8.97423 2.28242 9.96486
1 -9.86165 2.15591 4.30845
2
Atoms. Timestep: 3210000
1 -0.0113837 5.58699 0.316921
1 9.70393 -0.19705 5.94957
2
Atoms. Timestep: 3220000
1 -9.40263 7.09175 -5.8468
1 4.98344 -6.49372 4.59061
2
Atoms. Timestep: 3230000
1 4.76075 -5.95529 -6.99479
1 -4.29214 0.302759 1.37714
2
Atoms. Timestep: 3240000
1 -3.02155 -0.022912 4.31897
1 -6.60207 5.88477 1.65277
2
Atoms. Timestep: 3250000
1 3.97456 -8.71086 1.99399
1 -5.44191 -7.21268 -3.32343
2
Atoms. Timestep: 3260000
1 7.20037 -9.7283 5.71611
1 -0.69769 -2.36468 -0.417807
2
Atoms. Timestep: 3270000
1 8.39982 -0.241724 -2.25806
1 6.75597 4.64291 2.76181
2
Atoms. Timestep: 3280000
1 8.82949 1.35263 -4.47644
1 0.83106 3.89398 6.06786
2
Atoms. Timestep: 3290000
1 1.41765 5.3564 -6.41303
1 -7.84821 5.30487 7.40118
2
Atoms. Timestep: 3300000
1 -3.60818 -8.65614 -9.29629
1 -7.25829 9.30794 8.77043
2
Atoms. Timestep: 3310000
1 -6.37442 -9.80201 4.33293
1 7.2964 -7.54007 4.88857
2
Atoms. Timestep: 3320000
1 -2.98654 -8.36506 5.50477
1 -7.98482 -6.73939 3.17846
2
Atoms. Timestep: 3330000
1 -2.98946 -9.93078 0.831526
1 6.04858 -7.39575 2.27654
2
Atoms. Timestep: 3340000
1 -1.37735 -6.39648 -7.29557
1 3.60717 2.63262 -3.86953
2
Atoms. Timestep: 3350000
1 3.61004 -5.34746 -8.50463
1 -4.01579 -2.346 -6.1963
2
Atoms. Timestep: 3360000
1 -2.67541 -0.57658 7.59012
1 -6.51084 -8.7103 -4.59031
2
Atoms. Timestep: 3370000
1 -6.74862 1.54071 2.52329
1 -6.1122 3.02671 -6.0875
2
Atoms. Timestep: 3380000
1 -8.86651 2.32654 1.6182
1 -3.35046 -7.2539 -3.83024
2
Atoms. Timestep: 3390000
1 4.8986 4.52142 -4.43839
1 -4.9246 -0.0180881 -8.6101
2
Atoms. Timestep: 3400000
1 2.60187 -1.20091 2.48298
1 -0.93843 6.64618 -4.61543
2
Atoms. Timestep: 3410000
1 -6.76866 4.02964 -8.69489
1 3.15734 9.76141 -9.78455
2
Atoms. Timestep: 3420000
1 -4.01828 -8.07555 -1.90711
1 -4.9783 5.60609 -6.26821
2
Atoms. Timestep: 3430000
1 2.34201 -8.66991 6.831
1 -7.89409 -5.48344 5.88369
2
Atoms. Timestep: 3440000
1 -4.57418 9.20967 -3.74108
1 -0.451668 -2.49331 5.98239
2
Atoms. Timestep: 3450000
1 8.64566 8.10267 -1.98477
1 -7.52824 -0.719504 -8.49871
2
Atoms. Timestep: 3460000
1 6.7335 -3.0383 5.78637
1 8.34648 -6.98466 -7.95301
2
Atoms. Timestep: 3470000
1 -4.2128 -6.78328 4.26769
1 6.07833 6.93458 -8.68417
2
Atoms. Timestep: 3480000
1 -9.90765 -4.97903 4.42136
1 -4.75371 -3.62286 4.08466
2
Atoms. Timestep: 3490000
1 -3.72895 -5.16874 7.55095
1 -6.6765 5.93126 7.57919
2
Atoms. Timestep: 3500000
1 -0.219395 -2.19943 5.44534
1 8.73239 -7.36009 -8.78194
2
Atoms. Timestep: 3510000
1 -6.35625 -7.16527 6.17585
1 6.75786 0.00592257 0.987178
2
Atoms. Timestep: 3520000
1 -2.96302 -3.62684 -3.37694
1 7.09496 9.84956 -2.60608
2
Atoms. Timestep: 3530000
1 -3.66555 3.57959 -6.41048
1 9.61246 -1.127 3.08529
2
Atoms. Timestep: 3540000
1 -3.87887 8.26427 5.1864
1 7.81882 8.18103 -9.47505
2
Atoms. Timestep: 3550000
1 8.53126 -2.73384 9.7346
1 -9.83013 -1.11502 -5.25011
2
Atoms. Timestep: 3560000
1 2.25638 4.75039 -9.70978
1 3.10053 9.9403 1.50392
2
Atoms. Timestep: 3570000
1 -9.23893 -2.46331 -2.27696
1 -8.60964 -7.39373 8.26705
2
Atoms. Timestep: 3580000
1 7.77947 3.44474 9.43418
1 -3.96026 -2.34751 5.16907
2
Atoms. Timestep: 3590000
1 -1.79578 -6.47438 5.33671
1 -0.9887 -7.03197 0.152084
2
Atoms. Timestep: 3600000
1 4.40314 6.497 -4.97348
1 2.72034 -5.08558 -5.54708
2
Atoms. Timestep: 3610000
1 -1.47027 7.49003 -0.571218
1 3.92015 -2.24805 -4.97459
2
Atoms. Timestep: 3620000
1 4.50618 -5.01532 -3.23666
1 -1.26424 2.02275 -2.90769
2
Atoms. Timestep: 3630000
1 -8.94619 8.13918 -2.08598
1 4.05216 1.32733 0.333975
2
Atoms. Timestep: 3640000
1 -7.62536 -7.61109 -2.26378
1 0.114069 3.51441 3.98405
2
Atoms. Timestep: 3650000
1 -6.40569 5.71913 -3.67589
1 1.51476 -9.86799 8.63956
2
Atoms. Timestep: 3660000
1 -5.36702 -4.08132 -6.42353